<VTKFile type="UnstructuredGrid" version="1.0" byte_order="LittleEndian" header_type="UInt64">
  <UnstructuredGrid>
    <Piece NumberOfPoints="164" NumberOfCells="336">
      <PointData Scalars="Result">
        <DataArray type="Float64" Name="Result" format="ascii" RangeMin="-0.5" RangeMax="0.5">
          0.5 -0.5 -0.4755282581475767 -0.4045084971874735 -0.293892626146236 -0.154508497187473
          7.657177843178875e-16 0.154508497187474 0.2938926261462365 0.4045084971874734 0.4755282581475765 0.07821723252011609
          -0.4289802390398835 0.4195600686161929 -0.2185763491210304 -0.069920723429285 -0.128423955051947 -0.2682065921526959
          -0.3465491595434297 0.3291086208934176 0.3383750464852737 -0.1672533213184939 0.4027805262269518 0.2965711787291735
          -0.01841241138010323 -0.0527120343854719 -0.1958964041752996 -0.07638919740494939 0.3431501501224156 -0.2084177316584016
          -0.08378336162263093 -0.2123280713502965 -0.3284254206813866 -0.3157513648025074 -0.05489905340020787 -0.4289802390218135
          0.3404406452535579 0.4669660509390169 0.437906235763409 0.02180504624274866 0.044395086810012 -0.1845918394640816
          -0.2772331478784659 -0.136257890986058 -0.2167115464673771 -0.06581248336385173 -0.1402213652716462 0.01458155648230479
          -0.05483180152515834 -0.2055076932371346 -0.1141312402527042 0.03464849691958063 -0.01622157233113048 -0.1677384716269827
          -0.0652036451563527 0.08294297220794462 0.03702182010258638 0.08851074381925625 -0.1104688200422757 -0.009009711223801281
          0.1428047226565001 0.0913798857144017 -0.06130150004674344 -0.3452958890587524 -0.4105950825006982 0.1668635902080643
          0.2366944766441051 0.2974731788005044 0.2383550668986177 0.2752415979107395 0.03936897756855209 0.3589126728965187
          -0.1139094225334937 -0.2083693320010588 0.4298129630664864 0.120925622932688 -0.2546624424657828 -0.334571666076019
          0.2185205166748467 0.1806039054269168 -0.40969660649352 0.3616414477958255 0.3646803879910956 0.3087666909880599
          -0.03605998558328109 0.2255314452434665 0.3492874887601032 0.2441177411948268 -0.2810152597195528 -0.3909059291354988
          -0.3126082775230462 -0.4149619355589426 0.2626688485731009 0.3979615417240036 0.4374946326227452 0.2731457388991559
          0.187361172786128 0.4710971326294424 -0.01132949516349721 0.1412069534481969 0.2766385670881027 0.08994869704571257
          -0.321333239377528 -0.3817824056534136 -0.4515337598751551 -0.1659434779924089 -0.2947792097100299 -0.4691043086739091
          -0.459872543458461 0.2202278193270035 0.1307599002338368 0.4323689970409421 0.2304348213379974 0.4773098336611896
          0.3518483552795882 0.4716524451056007 -0.2871004288621463 -0.3078606691740851 0.2315864526249686 -0.06811549837036311
          -0.3978400849907785 -0.4249498702827863 -0.4717090041897684 -0.3139786657011359 -0.006025722531527681 0.180134245676659
          0.09191098890509157 -0.28090813596906 -0.1520987194720806 0.3512149031597229 0.1701812545587055 -0.2029012536915373
          0.1294505079468692 -0.2549663183020715 0.2713876507617655 -0.1921919923566091 -0.001608421182220752 -0.418018323573336
          -0.4819094049638634 0.4748390326925606 -0.3892642267756055 0.08265002549823605 0.4030907380211642 -0.3548547424280244
          0.4294564693010725 0.09104748816311665 0.06882380349738343 0.2523540891519643 -0.2179263671674129 0.1715308598669739
          -0.4586006809947371 0.2124540413796301 0.4300652346929103 0.08203709971904341 0.2770752069856664 0.1524550732007606
          0.1913023447933067 0.1523772899052313 0.3582480936580552 -0.374731696033715 0.4266373690086055 -0.3577317203846951
          -0.4177800806622181 0.3488153658918966
        </DataArray>
      </PointData>
      <CellData>
      </CellData>
      <Points>
        <DataArray type="Float64" Name="Points" NumberOfComponents="3" format="ascii" RangeMin="0.4999999999999999" RangeMax="0.5000000000000001">
          3.061515884555943e-17 -7.498303609110687e-33 0.5 3.061515884555943e-17 -7.498303609110687e-33 -0.5
          0.154508497187474 -3.784241747506552e-17 -0.4755282581475767 0.2938926261462368 -7.198055546404523e-17 -0.4045084971874735
          0.4045084971874742 -9.907273516618442e-17 -0.293892626146236 0.475528258147577 -1.164669852699221e-16 -0.154508497187473
          0.5 -1.224606353822377e-16 7.657177843178875e-16 0.4755282581475767 -1.16466985269922e-16 0.154508497187474
          0.4045084971874738 -9.907273516618432e-17 0.2938926261462365 0.293892626146237 -7.198055546404527e-17 0.4045084971874734
          0.1545084971874747 -3.784241747506568e-17 0.4755282581475765 0.4756291619527684 0.1328870378818088 0.07821723252011609
          0.2185763491210773 0.13490861395102 -0.4289802390398835 0.231825703752436 0.1422188169774423 0.4195600686161929
          0.4289802390398974 0.1349086139510517 -0.2185763491210304 0.4762372035239165 0.1353115605365825 -0.069920723429285
          0.4076225471962227 0.2595209948849586 -0.128423955051947 0.3384368182695284 0.252043139096139 -0.2682065921526959
          0.3409896318711459 0.1167465244712789 -0.3465491595434297 0.3542806435526569 0.1271720930768537 0.3291086208934176
          0.2696152241898044 0.2506191509066503 0.3383750464852737 0.2985132750182454 0.3645766738915341 -0.1672533213184939
          0.131702546573222 0.2653719783972455 0.4027805262269518 0.1708981089174287 0.3644713600759808 0.2965711787291735
          0.3566343673746551 0.3499612994524528 -0.01841241138010323 0.2303380603850227 0.4406425074468082 -0.0527120343854719
          0.1599624119908093 0.4313196327333944 -0.1958964041752996 0.07654627536385956 0.4881652980781693 -0.07638919740494939
          0.02286525824607578 0.3629396016368342 0.3431501501224156 0.004873771659734673 0.4544648451532586 -0.2084177316584016
          -0.07970443032013415 0.4864437810297859 -0.08378336162263093 -0.1485227141694609 0.4276187478261448 -0.2123280713502965
          -0.05946050638571174 0.3722918092445884 -0.3284254206813866 -0.2085928947780854 0.3267875148677692 -0.3157513648025074
          0.4742404739980664 -0.148600359211714 -0.05489905340020787 0.2185763491462333 -0.1349086139677213 -0.4289802390218135
          0.3404406452540871 -0.1349086139515265 0.3404406452535579 0.09772668864192034 -0.1496402405688543 0.4669660509390169
          -0.02245013910622851 0.2402792540641672 0.437906235763409 -0.01215802712079108 0.4993763333748223 0.02180504624274866
          -0.1430337592420589 0.4770434151984662 0.044395086810012 -0.2889926886059492 0.3638805830702864 -0.1845918394640816
          -0.3362919916148658 0.2450499502001658 -0.2772331478784659 -0.4007174954179296 0.2661940570523939 -0.136257890986058
          -0.4298245065273411 0.1352294317678129 -0.2167115464673771 -0.4735516321083819 0.1463474248525423 -0.06581248336385173
          -0.4798640098608507 0.00827651868969756 -0.1402213652716462 -0.4995613901771349 0.01502649842251139 0.01458155648230479
          -0.4814587432044955 -0.1232515806529609 -0.05483180152515834 -0.4376292426587002 -0.1274646381955572 -0.2055076932371346
          -0.4161311809509471 -0.2526042363832199 -0.1141312402527042 -0.4368583400285946 -0.2407369361121692 0.03464849691958063
          -0.3508919868024784 -0.355825342252228 -0.01622157233113048 -0.3101933204814848 -0.3544628458173223 -0.1677384716269827
          -0.2277922415071192 -0.4402944235025998 -0.0652036451563527 -0.2556033292094645 -0.4216484334826233 0.08294297220794462
          -0.120757156949952 -0.4837841397582773 0.03702182010258638 -0.4688504413753014 0.149482814566582 0.08851074381925625
          -0.08480743791006619 -0.4802128051953608 -0.1104688200422757 0.02950637255266943 -0.4990472914288251 -0.009009711223801281
          -0.003533449669377203 -0.4791600212042257 0.1428047226565001 0.1441844592656188 -0.4699580387578279 0.0913798857144017
          0.1723939023358397 -0.46531974869915 -0.06130150004674344 -0.3461804869947431 0.1045457766875747 -0.3452958890587524
          -0.1140706238453711 0.2615331164532948 -0.4105950825006982 -0.4711164831772155 0.01434578480277785 0.1668635902080643
          -0.4161061219522563 0.1443309391642248 0.2366944766441051 -0.40182442560842 0.00684389353997013 0.2974731788005044
          0.1083275784801515 -0.4259718275008127 0.2383550668986177 -0.04311371348373166 -0.4151906435472571 0.2752415979107395
          0.2798416818590503 -0.4124787469670467 0.03936897756855209 -0.1288746430291456 0.3233775187275499 0.3589126728965187
          0.2965921511670915 -0.3860799649349382 -0.1139094225334937 0.1779188352010083 -0.4182428834566692 -0.2083693320010588
          -0.1704567156452243 0.1902769688413453 0.4298129630664864 -0.3832595792578063 0.2974711559554483 0.120925622932688
          0.2896879299823786 -0.3181633913885856 -0.2546624424657828 0.1587659641123252 -0.3359392339376284 -0.334571666076019
          0.2985142822326288 0.3363599368166436 0.2185205166748467 0.2001711514830639 0.4210863800439164 0.1806039054269168
          0.0406474151238738 0.2837190128832421 -0.40969660649352 0.06806699223027188 -0.3385001444680096 0.3616414477958255
          -0.08863739809196707 -0.3303810319527289 0.3646803879910956 0.2122280709638218 -0.3310927006613993 0.3087666909880599
          -0.3479006569435756 0.3573021275306965 -0.03605998558328109 -0.4283885322549306 -0.1249753281206318 0.2255314452434665
          -0.3328948558685476 -0.1310696957039255 0.3492874887601032 -0.3556445536878738 -0.2528309313871397 0.2441177411948268
          0.03801804805356062 -0.4118070565531259 -0.2810152597195528 0.01394356671431922 -0.3114452303600036 -0.3909059291354988
          -0.1027340510374268 -0.3764595324620079 -0.3126082775230462 -0.1288170125390106 -0.2474121446447211 -0.4149619355589426
          -0.08020078601035247 0.4178192311426116 0.2626688485731009 -0.3026738434668012 -0.003893043756307636 0.3979615417240036
          -0.2037005829965391 -0.1307842456611625 0.4374946326227452 -0.3247055076612735 0.2644952525389988 0.2731457388991559
          -0.2869907406005332 0.3640495924208186 0.187361172786128 -0.1674691520631804 0.004644861198880159 0.4710971326294424
          0.3914690001696184 -0.3108434725799137 -0.01132949516349721 0.356036396653289 -0.3214011209626075 0.1412069534481969
          -0.1676505125612652 -0.3812668472833514 0.2766385670881027 0.4458209929738667 -0.2077326987346337 0.08994869704571257
          -0.2449435135482327 -0.294529496726204 -0.321333239377528 -0.2690749283206871 -0.1784401235224562 -0.3817824056534136
          -0.007374588202366524 -0.2146226435906782 -0.4515337598751551 0.3988378382743991 -0.2517759735804574 -0.1659434779924089
          0.3596290584272809 -0.1837720268632785 -0.2947792097100299 -0.02301237836685423 0.1714980408794064 -0.4691043086739091
          -0.1612391749082622 0.1118891069226522 -0.459872543458461 0.4322214318156666 0.1211789646501722 0.2202278193270035
          0.4030230699683764 0.2654698731760389 0.1307599002338368 0.213912123875473 -0.1315243462515369 0.4323689970409421
          0.426355226990797 -0.1229675303994969 0.2304348213379974 0.0698331513982435 0.1315243462485844 0.4773098336611896
          -0.2385877406211129 -0.2632083298688725 0.3518483552795882 -0.03572923318416097 -0.1620721842944684 0.4716524451056007
          0.2377921581967349 0.3332089933469843 -0.2871004288621463 0.1004462046339632 0.3809624238036036 -0.3078606691740851
          0.07021004501653902 0.4375365865151836 0.2315864526249686 -0.224262462138021 0.441663477047344 -0.06811549837036311
          -0.226538733888559 0.2010061412561785 -0.3978400849907785 -0.2622714775331912 -0.02512528247005142 -0.4249498702827863
          -0.1309886544978187 -0.1016493372292617 -0.4717090041897684 -0.3712540283411632 -0.1165669075037728 -0.3139786657011359
          -0.4310666843491106 0.2532690354390706 -0.006025722531527681 0.2403731807043772 -0.3997153831572683 0.180134245676659
          -0.476931203514442 -0.1186970818207171 0.09191098890509157 -0.413594148747239 -0.005522614275398074 -0.28090813596906
          0.04906400163238706 -0.4737707286006286 -0.1520987194720806 -0.3277389098260949 0.1386913796330157 0.3512149031597229
          -0.149643431855566 -0.445696291098898 0.1701812545587055 -0.1803291458001519 -0.4198957971037457 -0.2029012536915373
          -0.3591322238284804 -0.3229034093971566 0.1294505079468692 -0.35799751135831 -0.2383903487827128 -0.2549663183020715
          0.3347990514536419 -0.2534922842213381 0.2713876507617655 0.4449277353793257 -0.1228883573176147 -0.1921919923566091
          0.4398520038478537 0.2377553946650388 -0.001608421182220752 0.127295571058939 -0.2430154701777572 -0.418018323573336
          0.06750402038057914 -0.1149196790799272 -0.4819094049638634 -0.09426197799077148 0.1250702703957285 0.4748390326925606
          0.1741484712111528 0.261047259567321 -0.3892642267756055 0.1269303614332418 0.4765056732417439 0.08265002549823605
          0.1640880975578247 -0.2461563591732031 0.4030907380211642 0.2580309814035955 -0.2397876652629109 -0.3548547424280244
          -0.2437452917659556 0.07845618979651091 0.4294564693010725 0.2838422598041252 0.4014273613600282 0.09104748816311665
          -0.2733406920527796 0.4129747572676338 0.06882380349738343 0.3662155837576012 0.2284809836755826 0.2523540891519643
          -0.05637706149326643 -0.4464635768241329 -0.2179263671674129 -0.177288777239044 0.4349090175868755 0.1715308598669739
          0.1081705003760993 0.1672858578587792 -0.4586006809947371 -0.2682538362522527 -0.3645588562048823 0.2124540413796301
          0.03488619531885025 -0.2526397579256024 0.4300652346929103 0.4842605551237526 -0.09360357376149002 0.08203709971904341
          -0.2198930406766177 0.3533785227427403 0.2770752069856664 -0.4222043908248752 -0.22022920565526 0.1524550732007606
          0.4042644532242051 -0.2235479025531602 0.1913023447933067 -0.02759907757948493 0.4754150317752886 0.1523772899052313
          0.2691121078161184 -0.221894066655995 0.3582480936580552 0.3132185753474001 -0.1070993932991242 -0.374731696033715
          -0.1278170768696987 -0.2272517331636889 0.4266373690086055 0.2772589240941943 0.212498247618036 -0.3577317203846951
          -0.2602903003856488 0.08779956564254338 -0.4177800806622181 -0.2433701079682047 0.2628665651338083 0.3488153658918966
          <InformationKey name="L2_NORM_RANGE" location="vtkDataArray" length="2">
            <Value index="0">
              0.5
            </Value>
            <Value index="1">
              0.5
            </Value>
          </InformationKey>
          <InformationKey name="L2_NORM_FINITE_RANGE" location="vtkDataArray" length="2">
            <Value index="0">
              0.5
            </Value>
            <Value index="1">
              0.5
            </Value>
          </InformationKey>
        </DataArray>
      </Points>
      <Cells>
        <DataArray type="Int64" Name="connectivity" format="ascii" RangeMin="0" RangeMax="163">
          0 1 1 2 2 3
          3 4 4 5 5 6
          6 7 7 8 8 9
          9 10 10 0 1 122
          107 75 146 84 108 122
          121 84 124 75 34 101
          98 98 105 34 114 151
          100 121 127 63 24 145
          110 94 115 97 87 151
          114 103 133 123 110 136
          24 116 140 117 117 140
          80 141 145 25 99 134
          125 125 134 83 97 115
          0 141 157 118 96 146
          75 102 131 53 121 162
          108 79 145 141 79 141
          118 102 133 103 106 159
          4 72 105 98 123 133
          49 149 157 40 40 157
          39 4 135 106 140 150
          80 137 138 35 110 145
          78 76 105 72 35 138
          2 42 120 63 39 157
          141 90 131 102 1 138
          122 129 144 74 149 154
          92 33 120 42 122 138
          104 34 153 101 74 163
          129 22 113 13 25 145
          24 3 35 2 6 34
          5 47 65 57 61 68
          60 103 122 91 68 69
          60 85 87 86 86 94
          93 85 86 67 72 98
          70 9 111 36 68 81
          69 9 36 8 90 91
          89 88 90 89 81 82
          69 98 99 70 91 104
          89 88 89 77 90 102
          91 82 100 69 68 83
          81 87 114 86 98 101
          99 102 103 91 4 14
          5 2 150 12 59 62
          61 59 61 60 2 12
          3 86 93 67 59 60
          56 0 37 10 93 129
          67 73 88 77 58 59
          56 46 49 48 54 58
          56 47 57 45 73 77
          76 95 96 75 46 48
          47 54 56 55 44 127
          46 94 97 93 65 85
          67 46 47 45 54 55
          52 73 76 72 50 51
          48 50 53 52 62 72
          70 42 63 44 53 54
          52 44 46 45 66 95
          75 50 52 51 49 133
          50 49 50 48 65 67
          66 44 45 43 62 70
          61 107 108 64 62 73
          72 43 84 41 42 44
          43 9 13 10 13 113
          10 65 66 57 66 75
          57 80 107 64 42 43
          41 32 80 64 33 42
          41 32 64 33 33 41
          31 32 33 31 29 32
          31 30 40 39 30 39
          27 29 31 30 29 30
          27 26 29 27 28 92
          71 71 74 38 26 27
          25 28 71 38 21 26
          25 78 79 23 28 38
          22 21 25 24 20 78
          23 23 28 22 21 24
          16 17 116 21 20 23
          22 53 133 102 17 161
          116 14 18 17 17 21
          16 20 22 13 76 106
          105 14 17 16 105 135
          34 53 131 54 6 11
          7 38 113 22 19 20
          13 12 150 140 10 111
          9 1 150 2 10 113
          0 83 142 81 5 15
          6 92 154 71 60 130
          56 82 114 100 14 16
          15 14 15 5 6 15
          11 94 160 115 58 128
          59 21 116 26 101 153
          112 86 114 94 91 122
          104 63 127 44 46 127
          49 67 129 66 50 133
          53 38 139 113 54 131
          58 4 18 14 28 118
          92 55 132 52 152 160
          82 56 130 55 69 130
          60 63 162 121 121 122
          103 99 125 70 59 128
          62 115 160 152 37 111
          10 0 115 37 52 132
          51 11 110 109 75 124
          57 6 153 34 47 126
          65 74 144 139 84 119
          41 116 161 140 84 146
          119 8 112 7 65 126
          85 48 126 47 119 146
          40 9 19 13 30 119
          40 41 119 31 51 126
          48 36 134 112 81 152
          82 43 124 84 57 124
          45 11 109 7 74 139
          38 68 125 83 70 125
          61 31 119 30 7 109
          8 34 135 5 4 159
          3 23 118 28 12 18
          3 45 124 43 16 136
          15 96 154 149 89 137
          77 62 128 73 116 117
          26 61 125 68 76 143
          106 27 141 25 112 153
          7 26 117 29 80 150
          107 32 117 80 113 139
          0 100 130 69 15 136
          11 106 135 105 24 136
          16 73 128 88 3 18
          4 5 135 4 79 118
          23 64 120 33 36 112
          8 66 129 95 139 144
          97 112 156 101 8 109
          19 8 19 9 103 123
          121 104 137 89 120 162
          63 11 136 110 39 141
          27 134 158 83 134 156
          112 77 143 76 78 147
          110 29 117 32 143 159
          106 20 147 78 82 160
          114 104 138 137 58 148
          128 83 158 142 109 147
          19 78 145 79 132 151
          87 142 152 81 19 147
          20 108 120 64 137 143
          77 110 147 109 95 154
          96 51 155 126 130 151
          55 7 153 6 49 127
          123 37 142 111 126 155
          85 107 150 1 2 138
          1 85 155 87 18 161
          17 71 163 74 92 157
          149 97 144 93 3 159
          35 101 156 99 146 149
          40 96 149 146 93 144
          129 88 148 90 111 158
          36 131 148 58 55 151
          132 35 159 143 35 143
          137 100 151 130 129 163
          95 118 157 92 0 139
          97 132 155 51 114 160
          94 37 152 142 90 148
          131 128 148 88 87 155
          132 99 156 134 12 161
          18 36 158 134 108 162
          120 154 163 71 95 163
          154 115 152 37 142 158
          111 140 161 12 107 122
          108 123 127 121
        </DataArray>
        <DataArray type="Int64" Name="offsets" format="ascii" RangeMin="1" RangeMax="994">
          1 2 4 6 8 10
          12 14 16 18 20 22
          25 28 31 34 37 40
          43 46 49 52 55 58
          61 64 67 70 73 76
          79 82 85 88 91 94
          97 100 103 106 109 112
          115 118 121 124 127 130
          133 136 139 142 145 148
          151 154 157 160 163 166
          169 172 175 178 181 184
          187 190 193 196 199 202
          205 208 211 214 217 220
          223 226 229 232 235 238
          241 244 247 250 253 256
          259 262 265 268 271 274
          277 280 283 286 289 292
          295 298 301 304 307 310
          313 316 319 322 325 328
          331 334 337 340 343 346
          349 352 355 358 361 364
          367 370 373 376 379 382
          385 388 391 394 397 400
          403 406 409 412 415 418
          421 424 427 430 433 436
          439 442 445 448 451 454
          457 460 463 466 469 472
          475 478 481 484 487 490
          493 496 499 502 505 508
          511 514 517 520 523 526
          529 532 535 538 541 544
          547 550 553 556 559 562
          565 568 571 574 577 580
          583 586 589 592 595 598
          601 604 607 610 613 616
          619 622 625 628 631 634
          637 640 643 646 649 652
          655 658 661 664 667 670
          673 676 679 682 685 688
          691 694 697 700 703 706
          709 712 715 718 721 724
          727 730 733 736 739 742
          745 748 751 754 757 760
          763 766 769 772 775 778
          781 784 787 790 793 796
          799 802 805 808 811 814
          817 820 823 826 829 832
          835 838 841 844 847 850
          853 856 859 862 865 868
          871 874 877 880 883 886
          889 892 895 898 901 904
          907 910 913 916 919 922
          925 928 931 934 937 940
          943 946 949 952 955 958
          961 964 967 970 973 976
          979 982 985 988 991 994
        </DataArray>
        <DataArray type="UInt8" Name="types" format="ascii" RangeMin="1" RangeMax="5">
          1 1 3 3 3 3
          3 3 3 3 3 3
          5 5 5 5 5 5
          5 5 5 5 5 5
          5 5 5 5 5 5
          5 5 5 5 5 5
          5 5 5 5 5 5
          5 5 5 5 5 5
          5 5 5 5 5 5
          5 5 5 5 5 5
          5 5 5 5 5 5
          5 5 5 5 5 5
          5 5 5 5 5 5
          5 5 5 5 5 5
          5 5 5 5 5 5
          5 5 5 5 5 5
          5 5 5 5 5 5
          5 5 5 5 5 5
          5 5 5 5 5 5
          5 5 5 5 5 5
          5 5 5 5 5 5
          5 5 5 5 5 5
          5 5 5 5 5 5
          5 5 5 5 5 5
          5 5 5 5 5 5
          5 5 5 5 5 5
          5 5 5 5 5 5
          5 5 5 5 5 5
          5 5 5 5 5 5
          5 5 5 5 5 5
          5 5 5 5 5 5
          5 5 5 5 5 5
          5 5 5 5 5 5
          5 5 5 5 5 5
          5 5 5 5 5 5
          5 5 5 5 5 5
          5 5 5 5 5 5
          5 5 5 5 5 5
          5 5 5 5 5 5
          5 5 5 5 5 5
          5 5 5 5 5 5
          5 5 5 5 5 5
          5 5 5 5 5 5
          5 5 5 5 5 5
          5 5 5 5 5 5
          5 5 5 5 5 5
          5 5 5 5 5 5
          5 5 5 5 5 5
          5 5 5 5 5 5
          5 5 5 5 5 5
          5 5 5 5 5 5
          5 5 5 5 5 5
          5 5 5 5 5 5
          5 5 5 5 5 5
          5 5 5 5 5 5
          5 5 5 5 5 5
        </DataArray>
      </Cells>
    </Piece>
  </UnstructuredGrid>
</VTKFile>
