<?xml version="1.0"?>
<VTKFile type="UnstructuredGrid" version="0.1" byte_order="LittleEndian" header_type="UInt32" compressor="vtkZLibDataCompressor">
  <UnstructuredGrid>
    <Piece NumberOfPoints="642" NumberOfCells="320">
      <PointData Scalars="u">
        <DataArray type="Float64" Name="u" format="ascii" RangeMin="0.9999999999995284" RangeMax="1.0000000000019609">
          1.0000000000000457 1.000000000000319 0.9999999999999624 1.0000000000004419 1.000000000000812 1.0000000000004468
          1.0000000000001328 1.0000000000004214 1.0000000000003597 1.0000000000003288 1.0000000000005103 1.0000000000003981
          1.0000000000000577 1.0000000000004088 1.000000000000565 1.000000000000111 1.0000000000004268 1.0000000000004357
          1.0000000000001192 1.0000000000004172 1.0000000000003468 1.000000000000254 1.0000000000005638 1.0000000000003546
          1.0000000000004063 1.0000000000001525 1.0000000000003777 1.0000000000003317 1.000000000000012 1.000000000000389
          1.0000000000006002 1.0000000000001514 1.0000000000003908 1.0000000000004825 1.0000000000000917 1.0000000000004194
          1.0000000000004456 1.0000000000000933 1.0000000000004425 1.000000000000431 1.000000000000292 1.000000000000149
          1.000000000000343 1.0000000000003284 1.0000000000000686 1.0000000000004148 1.0000000000003997 1.0000000000001026
          1.0000000000003944 1.0000000000003648 1.0000000000004479 1.0000000000003795 1.0000000000002662 1.0000000000003058
          1.0000000000004052 1.0000000000004254 1.0000000000003098 1.0000000000001243 1.0000000000003606 1.0000000000002969
          1.000000000000175 1.000000000000414 1.0000000000003788 1.000000000000089 1.0000000000004234 1.0000000000004186
          0.999999999999979 1.0000000000002784 1.0000000000002993 1.0000000000005618 1.0000000000003932 1.0000000000000904
          1.0000000000003195 1.0000000000002243 1.000000000000121 1.0000000000004408 1.0000000000004228 1.0000000000000782
          1.000000000000259 1.0000000000003675 1.0000000000000466 1.0000000000003086 1.0000000000003548 1.0000000000000435
          1.0000000000004028 1.0000000000004052 1.000000000000031 1.0000000000004103 1.0000000000003837 1.0000000000003078
          1.0000000000002196 1.0000000000002627 1.0000000000002471 1.000000000000131 1.0000000000003761 1.0000000000004177
          1.0000000000001916 1.0000000000003924 1.0000000000004008 1.0000000000002285 0.9999999999999023 1.000000000000976
          1.0000000000003422 1.00000000000012 1.0000000000003428 1.0000000000003417 1.0000000000004712 1.0000000000001568
          1.0000000000002334 1.0000000000001914 1.0000000000004312 1.0000000000003575 1.0000000000003804 1.0000000000001983
          1.0000000000003983 1.0000000000005183 1.0000000000003968 1.000000000000285 1.0000000000003257 1.000000000000293
          1.0000000000001312 1.00000000000038 1.000000000000464 1.0000000000001563 1.0000000000003135 1.0000000000004048
          1.000000000000158 1.0000000000003373 1.0000000000003906 1.0000000000001865 1.0000000000002602 1.0000000000002527
          1.0000000000002498 1.0000000000004892 1.0000000000003628 1.000000000000345 1.0000000000000675 1.000000000000239
          1.0000000000004443 1.0000000000000986 1.0000000000002056 1.000000000000351 1.0000000000001403 1.0000000000003733
          1.000000000000412 1.0000000000001157 1.0000000000004146 1.0000000000003082 1.0000000000001215 1.0000000000003912
          1.0000000000002478 1.0000000000001315 1.000000000000429 1.0000000000004559 1.0000000000002969 1.0000000000003157
          1.0000000000003455 0.9999999999999881 1.0000000000004223 1.0000000000004121 1.000000000000041 1.000000000000544
          1.0000000000004163 0.9999999999999587 1.000000000000397 1.0000000000003477 1.0000000000003584 1.0000000000003653
          1.0000000000001674 1.0000000000004097 1.0000000000003813 1.0000000000003058 1.0000000000002933 1.0000000000003126
          1.0000000000000353 1.0000000000004072 1.0000000000004716 1.000000000000156 1.0000000000002278 1.000000000000266
          1.0000000000004479 1.0000000000002771 1.000000000000381 1.0000000000003277 1.0000000000004192 1.000000000000503
          1.0000000000003582 1.0000000000002867 1.0000000000001796 1.000000000000134 1.0000000000002907 1.0000000000003877
          1.0000000000001938 1.0000000000002396 1.000000000000279 1.000000000000189 1.0000000000002245 1.000000000000246
          1.0000000000003146 1.0000000000004161 1.0000000000004665 1.0000000000006404 1.0000000000003968 1.0000000000002462
          1.0000000000003284 1.0000000000003841 1.0000000000001061 1.0000000000004365 1.0000000000004436 1.0000000000000373
          1.0000000000003033 1.0000000000004 1.0000000000001814 1.000000000000431 1.0000000000003644 1.0000000000005276
          1.0000000000000804 1.0000000000004283 1.0000000000003983 1.0000000000001024 1.0000000000003804 1.0000000000002778
          1.0000000000001248 1.0000000000004334 1.0000000000004372 1.0000000000001057 1.000000000000597 1.0000000000004785
          1.0000000000003042 1.0000000000003173 1.0000000000003073 1.0000000000001688 1.000000000000441 1.000000000000328
          0.9999999999996759 1.0000000000001203 1.000000000000183 1.0000000000004394 1.0000000000002998 1.0000000000002727
          1.0000000000003508 1.0000000000001792 1.0000000000002502 1.000000000000312 1.000000000000141 1.0000000000003104
          1.0000000000003395 1.0000000000003697 1.0000000000000338 1.0000000000004436 1.000000000000434 1.0000000000000102
          1.0000000000004152 1.0000000000006386 1.0000000000000175 1.0000000000007425 1.0000000000004434 1.000000000000136
          1.0000000000004667 1.0000000000004532 1.000000000000349 1.0000000000001774 1.0000000000003468 1.000000000000425
          1.0000000000003324 1.0000000000001112 1.0000000000004172 1.0000000000004394 1.0000000000006848 1.0000000000004459
          1.0000000000003944 1.0000000000003493 1.0000000000004794 1.0000000000006413 1.0000000000003237 1.0000000000001052
          1.0000000000004519 1.0000000000004459 1.0000000000001747 1.000000000000484 1.0000000000003235 1.0000000000004063
          1.0000000000004132 0.9999999999999024 1.0000000000003844 1.0000000000004818 1.0000000000004374 1.0000000000001956
          1.00000000000031 1.0000000000004317 1.0000000000006057 1.0000000000005127 1.0000000000003977 1.000000000000461
          1.0000000000002558 1.0000000000002829 1.0000000000002884 1.0000000000001097 1.0000000000004512 1.0000000000004947
          1.0000000000002462 1.0000000000005396 1.0000000000006695 1.0000000000002316 1.0000000000004545 1.0000000000003635
          1.0000000000003975 1.0000000000009825 1.0000000000003295 1.0000000000001885 1.0000000000004696 1.000000000000462
          1.0000000000001672 1.000000000000517 1.0000000000003952 1.000000000000117 1.0000000000005633 1.0000000000004259
          1.000000000000164 1.00000000000066 1.0000000000005032 1.0000000000001978 1.0000000000005351 1.000000000000498
          1.0000000000003235 1.0000000000004512 1.0000000000002622 1.0000000000002605 1.0000000000006468 1.000000000001011
          1.0000000000013198 1.0000000000003053 1.0000000000007006 1.0000000000006102 1.0000000000001024 1.000000000000472
          1.0000000000004152 1.0000000000003209 1.0000000000004043 1.0000000000003257 1.0000000000001819 1.0000000000004365
          1.0000000000004023 1.0000000000001668 1.0000000000003897 1.0000000000005118 1.0000000000001121 1.0000000000003797
          1.0000000000004685 1.0000000000002034 1.0000000000004998 1.000000000000454 1.0000000000004456 1.0000000000001552
          1.000000000000466 1.0000000000004257 1.0000000000006857 1.0000000000005242 1.0000000000001785 1.0000000000004745
          1.0000000000004323 1.0000000000005451 1.000000000000394 1.0000000000004088 1.0000000000003906 1.0000000000003542
          1.0000000000007032 1.0000000000003344 1.0000000000004226 1.0000000000001341 1.000000000000457 1.0000000000004627
          1.0000000000001874 1.0000000000003446 1.000000000000339 1.000000000000053 1.0000000000002267 1.0000000000003044
          1.000000000000834 1.00000000000042 1.0000000000002398 1.0000000000003764 1.0000000000003528 1.0000000000004294
          1.0000000000003173 1.0000000000005413 1.0000000000004055 1.0000000000003355 1.0000000000001663 1.0000000000004696
          1.0000000000004619 1.000000000000283 1.000000000000752 1.0000000000005114 1.0000000000001743 1.0000000000004927
          1.0000000000004647 1.0000000000004028 1.0000000000001001 1.0000000000008362 1.000000000000418 1.0000000000003042
          1.0000000000003344 1.0000000000003597 1.0000000000002554 1.000000000000438 1.000000000000439 1.0000000000001947
          1.0000000000003562 1.00000000000034 1.0000000000001246 1.0000000000003426 1.0000000000004 1.000000000000235
          1.0000000000006646 1.000000000000546 1.0000000000002867 1.0000000000003444 1.0000000000003721 1.0000000000003892
          1.0000000000004776 1.0000000000003229 1.0000000000002733 1.0000000000005014 1.000000000000637 1.0000000000001532
          1.0000000000004075 1.0000000000003795 1.0000000000003715 1.0000000000003506 1.000000000000303 1.0000000000003104
          1.0000000000003413 1.0000000000001792 1.0000000000003073 1.0000000000004106 1.0000000000001106 1.0000000000004585
          1.000000000000492 1.0000000000001317 1.0000000000003346 1.0000000000004199 1.0000000000004683 1.0000000000001787
          1.0000000000004206 1.0000000000004152 1.0000000000003464 1.0000000000002964 1.00000000000038 1.0000000000000624
          1.0000000000005347 1.0000000000008387 1.0000000000004317 1.0000000000003122 1.0000000000004539 1.0000000000003442
          1.000000000000407 1.000000000000946 1.0000000000004412 1.0000000000001907 1.0000000000005265 1.0000000000004337
          1.0000000000000993 1.0000000000004778 1.0000000000004572 1.0000000000003029 1.0000000000001683 1.000000000000435
          1.0000000000004505 1.0000000000002072 1.0000000000003149 1.0000000000003577 1.0000000000002818 1.0000000000004814
          1.0000000000004627 1.0000000000005025 1.0000000000005071 1.0000000000003255 1.000000000000362 1.0000000000003217
          1.0000000000001064 1.0000000000006113 1.000000000000469 1.0000000000003983 1.0000000000004015 1.0000000000004228
          1.000000000000414 1.0000000000005578 1.0000000000001266 1.0000000000003726 1.000000000000561 1.0000000000003628
          1.0000000000000113 1.0000000000005558 1.0000000000003435 1.0000000000001197 1.0000000000003726 1.000000000000416
          1.000000000000088 1.0000000000004294 1.0000000000004179 1.0000000000000355 1.0000000000006553 1.000000000000592
          1.000000000000479 1.0000000000003828 1.0000000000001819 1.000000000000385 1.0000000000003002 1.0000000000004177
          1.00000000000033 1.000000000000278 1.0000000000001468 1.0000000000003653 1.000000000000447 1.0000000000001048
          1.0000000000003881 1.0000000000004405 1.0000000000001612 1.0000000000004758 1.000000000000462 1.00000000000049
          0.9999999999996232 1.000000000000467 1.0000000000005869 1.0000000000005396 1.0000000000004854 1.000000000000096
          1.000000000000368 1.0000000000005715 1.0000000000005649 1.0000000000003648 1.000000000001096 1.0000000000004243
          1.0000000000004687 1.0000000000008487 1.0000000000003892 1.0000000000004006 1.000000000000387 0.9999999999999886
          1.0000000000006177 1.0000000000004534 1.0000000000001306 1.0000000000004012 1.0000000000003457 1.0000000000003328
          1.0000000000004483 1.0000000000004832 1.0000000000003042 1.0000000000004097 1.0000000000003089 1.0000000000004532
          1.0000000000005091 1.0000000000007667 1.0000000000001261 1.000000000000598 1.000000000000692 1.0000000000001688
          1.0000000000008007 1.0000000000008138 1.0000000000004012 1.000000000000009 1.0000000000010796 1.000000000000508
          1.0000000000001181 1.0000000000004363 1.0000000000004452 1.0000000000001212 1.000000000000432 1.0000000000004166
          1.0000000000012592 1.0000000000003608 1.000000000000405 1.0000000000004357 1.0000000000001368 1.000000000000454
          1.0000000000004179 1.0000000000001854 1.0000000000004519 1.0000000000005156 1.0000000000002343 1.0000000000003906
          1.0000000000003144 1.0000000000003837 0.9999999999998712 1.0000000000004308 1.0000000000010567 1.0000000000006009
          1.0000000000005358 1.0000000000004843 1.000000000000425 1.00000000000044 0.9999999999995284 1.0000000000019609
          1.0000000000007763 1.0000000000003801 1.0000000000002076 1.0000000000003764 1.0000000000003224 1.0000000000004619
          1.0000000000004505 1.0000000000003575 1.0000000000003761 1.000000000001538 1.000000000000464 1.000000000000199
          1.0000000000005096 1.0000000000003395 1.0000000000003286 1.0000000000002855 1.000000000000347 1.0000000000004072
          1.0000000000001472 1.0000000000004596 1.0000000000003806 1.0000000000003157 1.0000000000004954 1.0000000000002134
          1.000000000000455 1.0000000000003453 1.000000000000388 1.0000000000003433 1.0000000000003406 1.000000000000389
          1.000000000000245 1.0000000000007998 1.0000000000005052 1.0000000000002784 1.0000000000003322 1.0000000000003777
          1.0000000000002092 1.0000000000003233 1.0000000000003295 1.0000000000004658 1.0000000000003817 1.0000000000004825
          1.000000000000424 1.0000000000004123 1.0000000000004172 1.0000000000004494 1.0000000000004743 1.0000000000004308
        </DataArray>
      </PointData>
      <CellData>
      </CellData>
      <Points>
        <DataArray type="Float64" Name="Points" NumberOfComponents="3" format="ascii" RangeMin="0.9999999999999997" RangeMax="1.0000000000000002">
          -0.8105616108825712 -0.5611756084770719 0.16754644554224302 -0.7701004523871441 -0.6262692692633408 -0.12137584442333306
          -0.5764928164425411 -0.8170915372428315 -0.004177601739351168 -0.6807954068304948 -0.7297180449465344 -0.06347589241522207
          -0.7068873073567887 -0.7024090275499386 0.08325798889126776 -0.7993087677730358 -0.6004668069667828 0.023347537177780077
          -0.91361990091357 -0.39892354223281323 -0.07847728401966729 -0.8727906892840871 -0.48600776298558523 0.0450873265647428
          -0.8497705651927016 -0.5174129261719437 -0.10086550630549171 -0.5959480054569646 -0.7520023710628726 0.28167074521093516
          -0.7118031286917357 -0.6645700701273977 0.2273387953595298 -0.5926503126984874 -0.7931521813647442 0.14026840005765043
          -0.5948775141882187 -0.7311535435343809 -0.33396891904841 -0.6900255085851494 -0.6862062170247617 -0.23018650094732251
          -0.5944040536192412 -0.7856466293750751 -0.17159019433696593 -0.9376616866552161 -0.27820706481902724 0.20830600198668367
          -0.8850075604227879 -0.42492284195113345 0.19026874778238653 -0.9371199652844582 -0.3427639615898719 0.06571938298913996
          -0.7955325746014651 -0.4919193725262839 -0.35375592388158106 -0.8652823250592214 -0.45100167456563717 -0.21882410168694627
          -0.7900285388645435 -0.5642452117576672 -0.2397545594730157 -0.6438413033196639 -0.602298941313687 0.47191562956957506
          -0.7385637143848579 -0.5908267074375699 0.324726718291739 -0.6246680213152622 -0.6823649107780365 0.3796946031812375
          -0.703870862721493 -0.6191593369034676 -0.34814870980223256 -0.38623006535301935 -0.892831085675539 0.23168726565963982
          -0.48734179331028543 -0.8655832049204623 0.11516810258372828 -0.49521103758923735 -0.8293197608262471 0.2588334649014444
          -0.3483879170786434 -0.8995293935105306 -0.2635767998974519 -0.477277849675194 -0.825100570737057 -0.30234897449603776
          -0.4699075412481317 -0.8721698826553775 -0.13603895937208732 -0.7974897652646337 -0.40179822888087957 0.45007583535038564
          -0.8778828373170501 -0.34404200046248357 0.3331018250654567 -0.8148322410887947 -0.48795837100942585 0.31296173415297907
          -0.9944324272272498 -0.09795994042506154 -0.038832946718462436 -0.97795145338464 -0.19040121640584992 0.08578071819495986
          -0.9660165644500046 -0.25156420909945193 -0.05939230512766193 -0.9222459365616029 -0.20716878888681628 -0.32641005714711246
          -0.9294260394832393 -0.30684050183558065 -0.20497839779788823 -0.8695954181903249 -0.35390119164101025 -0.3443221677694695
          -0.7265273153042299 -0.506132169954933 0.464745399819664 -0.4483350138760702 -0.7375533246169003 0.5049859489919506
          -0.5268963405972771 -0.7515600949546872 0.39691015348174186 -0.5500636780678113 -0.6748031923614654 0.4920067089474355
          -0.5953716525426765 -0.5479615533534468 -0.5875974228969013 -0.7041210116475796 -0.5264215862129078 -0.47654371732872025
          -0.6025428861561597 -0.6475297137334276 -0.46652689115945994 -0.3648584408113791 -0.7551083151164546 -0.5446923449165392
          -0.48584959220088114 -0.7523941498362794 -0.44480694357257927 -0.36117349475171 -0.8378749883009095 -0.40929110748779685
          -0.9705276666443969 -0.15450473030844408 -0.18494414451422136 -0.4860997411264701 -0.6596563991453307 -0.5732019510987336
          -0.3017858446842533 -0.953352179764715 -0.006702632772165641 -0.3469532245563869 -0.9309948036402739 0.11345543426708722
          -0.44439409860145657 -0.8958144773035723 -0.005505214030948586 -0.42274266623851764 -0.8258589650520745 0.37315627823294867
          -0.32801322421258533 -0.9347803536183605 -0.13635620715903327 -0.875576608562875 -0.12650530193089665 0.4662209895756585
          -0.917391579690073 -0.20476057583383653 0.34127085445134037 -0.8452573559314468 -0.26690659292949775 0.4629264227655912
          -0.9689297499821218 0.02104148294224661 0.24643943595775095 -0.9937020796022304 -0.03893017398812714 0.10507434771368696
          -0.9644491508420416 -0.13008719241092342 0.23003294940227217 -0.7611350028438447 -0.28264131321776853 -0.5837699851040955
          -0.788035817304251 -0.39210784106120433 -0.47460614368541687 -0.8521822472821999 -0.2479578233197963 -0.4607627754838363
          -0.5794573587738784 -0.46501653083835787 0.6693196511457432 -0.6164423178357853 -0.5378395676403438 0.575089095933572
          -0.6972087526335947 -0.43890635075057194 0.5667990565640727 -0.5216800071530724 -0.6103923978132467 0.596046215346231
          -0.6867078407390084 -0.4204782178914014 -0.5929843250427788 -0.13758278913326125 -0.8707453819315426 -0.47209475317906735
          -0.24572658204871584 -0.8951230275735127 -0.37198550023123794 -0.253457637079517 -0.8201656467089422 -0.5129205963544168
          -0.9548315645414794 0.1004649748246535 -0.27964883727409234 -0.986913191230718 0.0012682999859864718 -0.16124746320468444
          -0.9502377541341359 -0.0540169452632567 -0.3068067473875692 -0.33302787741714096 -0.5614481759300539 -0.7575410078720816
          -0.3526577821200925 -0.6652858496306572 -0.6580480430723519 -0.4699860734411549 -0.5616193305547382 -0.6809528752554123
          -0.10058574302404448 -0.9805320120393182 0.16864009507358363 -0.20302038577057005 -0.9757595383208151 0.08170707642254094
          -0.24629600457665807 -0.9477955278953089 0.20253867638361772 -0.17093212095919758 -0.8735796289436982 0.45567624682331237
          -0.2820177934456971 -0.8941009714837344 0.3479215672703587 -0.3134931887750755 -0.8156079642215704 0.48631848544958717
          -0.052037091930731486 -0.9844854839200973 -0.16757229190413594 -0.20287386924443093 -0.9545292609070645 -0.218440113646754
          -0.1789181684330711 -0.9799092416792293 -0.08812585929335912 -0.9314725031737984 -0.05325904517082733 0.359892275463964
          -0.7314557619932112 -0.2478245862327181 0.6352601378219105 -0.810029021452533 -0.18868199456659696 0.5552045472895758
          -0.7705025792824781 -0.3273733731400358 0.54694830640378 -0.9781767908615763 0.20729923770150022 0.014042502203122215
          -0.9845412455859591 0.11545894012721962 0.13171092925322236 -0.9983887594284004 0.05533945819758462 -0.012547087846080673
          -0.8468433672549338 0.005714507259744202 -0.5318116731918388 -0.8135220274419981 -0.14010515366706644 -0.5644045152039351
          -0.8950326347227991 -0.10192145533404122 -0.4341988020754497 -0.6613890322560853 -0.3596464854178167 0.65819370517954
          -0.23660917749715932 -0.673742809876049 0.7000619424482694 -0.416558775432286 -0.5812763731835248 0.6989968273096541
          -0.34625633232273334 -0.7134453135094919 0.6091816945359994 -0.5390479091791862 -0.3243867630844812 -0.7773034025045309
          -0.5736380198062837 -0.44111735878677455 -0.6901846839866165 -0.6574063990577904 -0.3069292313247775 -0.6881942120043225
          -0.09617805147199696 -0.9410009578483925 -0.32444873207250774 -0.18245855773158765 -0.7135091380548476 -0.6764714218817652
          -0.16140884513458045 -0.7989989261550855 -0.5792649658967315 -0.27546757929776977 -0.7391630368078089 -0.6146182699634664
          -0.9785926771390033 0.15580677849721303 -0.1344641960680937 -0.9104740709174279 0.0536576624313101 -0.4100705079001096
          -0.4415379995116191 -0.4485043534995242 -0.7771023355255415 -0.25944708611148615 -0.6416928506265566 -0.7217461430191524
          -0.1374668655797438 -0.9387187715080921 0.3160853189979236 -0.0774367288731274 -0.9969971211100098 0.000541774660042801
          -0.20647174272213156 -0.7839165299474179 0.5855290714665542 -0.8606326124626713 0.12606566507042305 0.493375064688143
          -0.9245091471798139 0.07433575741660561 0.373840917972007 -0.8752176091037308 -0.00022161955900099146 0.48372935366744074
          -0.6990561222536326 0.04743990203771747 0.7134914110445664 -0.7238438086407638 -0.10139532191118572 0.6824728048698796
          -0.7996624069436236 -0.04015261892324228 0.5991058354871328 -0.9078594242555867 0.28393403969685044 0.30850077291919703
          -0.9475221721749082 0.1539709806715751 0.2801690031891055 -0.9547284340501491 0.24866668726969055 0.1632742963802572
          -0.6603962997927848 -0.037463421280232605 -0.7499821459781412 -0.7616815948794341 -0.01604427218544653 -0.6477528304468926
          -0.719625434567796 -0.16204744013942854 -0.6751887595831031 -0.5648047232459188 -0.2119475694624457 0.7975423828224196
          -0.5779912110668647 -0.34194902228253893 0.7409433352756978 -0.6526653190291221 -0.23149462943177948 0.7214140405348773
          -0.34963516472437944 -0.4195763861086914 0.8376818655122754 -0.29671620389642045 -0.5533623066627185 0.7782992046187723
          -0.4694559723748438 -0.44697101470331135 0.7614643800051859 -0.6071907074905232 -0.1831782318898343 -0.7731527534057369
          0.12001962079703782 -0.8918575867551479 -0.4361024370156839 -0.008857305851185998 -0.8889007546359254 -0.458014188143491
          0.03446980360138811 -0.9513793942881288 -0.3060867209854671 0.03514175063573506 -0.712088294611358 -0.7012098958512663
          -0.07410403331333905 -0.7171111139611476 -0.6930081114100309 -0.05192298346270472 -0.8022707307221758 -0.594697972432089
          -0.8971795561961636 0.3901597641193665 -0.20698841128424414 -0.9482694156223952 0.3021037038661378 -0.09756263375658819
          -0.9369050111411876 0.24819979284109617 -0.24618258048076425 -0.8206862560040662 0.2795690009485127 -0.4983123949037173
          -0.8988249367589654 0.19238557354249436 -0.39382930839764524 -0.8418863766844006 0.14403120382585255 -0.520079168086636
          -0.3034152571707644 -0.286217973431629 -0.9088555734552601 -0.322255871037164 -0.42920628484450773 -0.8437612924471318
          -0.42519834966876974 -0.30817742144317917 -0.8510188249102294 -0.04870127384665793 -0.4702806835042473 -0.8811720970664533
          -0.19340613840888995 -0.5227337077285462 -0.8302671476278753 -0.11733780073245917 -0.6008971941312263 -0.7906670617930717
          -0.8911039784736878 0.20658977281522237 0.40404747903745225 -0.4625123920827334 -0.3194170105561315 0.8270762120489816
          -0.17829027173513262 -0.3830446435520702 -0.9063605132896513 0.13294840540532288 -0.9163556806890071 0.377646644323987
          0.016392390693856826 -0.9608147746076425 0.27670608671116237 -0.019234447582547384 -0.9063993974062163 0.4219836115394083
          0.19573930083484944 -0.9778799588436223 0.07373542025837702 0.07295060529515754 -0.9961972606519263 -0.04763640474120749
          0.048163260364818807 -0.991276709198399 0.12268164553764008 0.051627791836266194 -0.7587722997293149 0.649306682757538
          -0.06041369391458373 -0.8265954010614104 0.5595446617846702 -0.09358365943306274 -0.7247216019658455 0.6826570869266466
          -0.787836155599984 0.08764181975741206 0.6096171777099518 -0.6393556898510432 -0.08322032727467726 0.7643943216582608
          -0.8729743723417192 0.48102564952276544 0.08080884689056371 -0.9008259137983081 0.38695105201664887 0.196930333805262
          -0.9362214313439827 0.3481209551961459 0.04797115847618445 -0.7104189493493915 0.1859998577119419 -0.6787554562111777
          -0.6903887418578809 0.07480795353882536 -0.7195603902406146 -0.7858055963435406 0.09674042663711174 -0.6108607489512171
          -0.04078294352825547 -0.5000378079804607 0.8650427400465639 -0.14038630903708163 -0.5940425703188703 0.7920890788818487
          -0.19776213891730965 -0.4658207858640256 0.8624970329617792 -0.46019503580244625 -0.10837664699075285 -0.8811782063861016
          -0.503645823546162 -0.2181246164034644 -0.8359201733080438 -0.5647121613841567 -0.07349482148724149 -0.8220089330411152
          0.07866794841295092 -0.8132122749841446 -0.576625658211295 0.23794960822688377 -0.9521921223690982 -0.1915989197331361
          0.09396849353152072 -0.9788834057268606 -0.18154118049632423 0.18074021442658103 -0.9310686864040988 -0.31692913417163054
          -0.0068642721866866065 -0.5985536780778403 -0.801053291752076 -0.8702044802687291 0.33925872893440057 -0.35727815125199835
          -0.8953965297927642 0.4406715052320633 -0.06382537827215072 -0.7707216091643332 0.23435618837227656 -0.5925077030206095
          -0.3845536380719541 -0.19871758964408315 -0.9014598266210595 -0.7516770591270086 0.3188376499659225 0.5773423176473208
          -0.8118663992320977 0.2240277154877136 0.5391516785574024 -0.840111407408685 0.3051426573741417 0.4484426181714286
          -0.39178127968434473 -0.20125388661687968 0.8977774234243683 -0.4807085336277799 -0.20764412759156403 0.8519408559132308
          -0.37319132399089716 -0.31249437910276734 0.8735419272863193 -0.05022776884921609 -0.28926802393683027 -0.9559294856651881
          -0.04970340195841468 -0.38160841027235154 -0.9229867783685578 -0.17830605436754568 -0.290158804174309 -0.940220622692362
          0.2188463123557298 -0.9739450300169592 -0.05947579401372441 0.16643940952178798 -0.9591945647902214 0.22856882953486116
          0.09352669934367817 -0.8488049560459022 0.5203680458116073 0.005507075081749476 -0.6392308661156633 0.7689951702898161
          -0.7341333061547141 0.18535217479949181 0.6532173145986317 -0.4574608311337778 0.0401669218928544 0.8883221298403221
          -0.5165412165080514 -0.0867991533980418 0.8518515590276076 -0.5848000102459228 0.04429893689163203 0.8099670068630205
          -0.7517046929582519 0.5490049396020039 0.3654225374510175 -0.8401253965540857 0.4216608343301738 0.3411619246880023
          -0.8227232931508305 0.5215984968541194 0.22596767686236907 -0.5006088199586548 0.22606369296743548 -0.8356350974567355
          -0.6109010918100342 0.20786482307419246 -0.763931980842302 -0.5880723583569459 0.09552981694137509 -0.8031469077395785
          -0.15879096852963 -0.22696916265391867 0.9608696204572192 -0.10102807124384748 -0.3680246143730472 0.9243112095156685
          -0.25707922580640546 -0.3269175564613023 0.9094147474811206 -0.4874952684675414 0.05971237285273775 -0.8710813944460388
          0.32993861310269434 -0.7304111183526598 -0.5980301913538202 0.184815568197596 -0.7302401747979336 -0.6577176391605165
          0.22773870842689722 -0.8210837179722689 -0.5234086441442138 0.41467548807359234 -0.8482261971288859 -0.32947922255461937
          0.27075666605706017 -0.8811363264188526 -0.3876720289764981 0.3288316734132971 -0.9071587534719924 -0.2625504266980944
          0.25333213812915917 -0.5194986426167724 -0.8160539125022558 0.10359080687294804 -0.5010585249617544 -0.8591910726343488
          0.14603487603746554 -0.6234694116598314 -0.768088346289192 -0.7138470175755111 0.5780614864020699 -0.39530665746629945
          -0.7781515414218119 0.43489867387850295 -0.45314823407090293 -0.8162336632847979 0.490553533411365 -0.30515543216253627
          -0.7897543446414333 0.6004310913334062 -0.12558096862245938 -0.8501219718147649 0.49920334808676 -0.16759668939673456
          -0.8380727409538613 0.5450915749364211 -0.022566696776759855 -0.6051533012954251 0.4204977029517602 -0.6759964228777703
          -0.7218064133674763 0.35439656171224365 -0.594473362454635 -0.6632875046292249 0.3057849946129251 -0.6830411578172353
          -0.2544190872670956 0.003318804331989516 -0.9670883690604409 -0.36011795653773704 -0.052942160524380236 -0.931403341747331
          -0.28209536270792834 -0.14306136671695036 -0.9486599241518325 -0.7610607981278981 0.4393301787452391 0.47725826928048437
          -0.4279879705342215 -0.08118212961123221 0.9001309676429223 -0.27733650824409684 -0.215706268559049 0.9362453027381785
          -0.15480921888602392 -0.1453078357427476 -0.9771999481271261 0.1396663028336856 -0.26304869254034324 -0.95461966730504
          0.044926116506450106 -0.2774357320886115 -0.9596932106752164 0.04596669190260432 -0.37056796295396105 -0.9276672076060912
          0.454901488962381 -0.8896283518779416 -0.04032407314181128 0.34966919474490354 -0.9295328891118307 -0.11704726526435447
          0.32895751107056526 -0.9441936248571446 0.016892444742675074 -0.7593379046844758 0.5951538134711721 -0.26305490837487056