<VTKFile type="UnstructuredGrid" version="1.0" byte_order="LittleEndian" header_type="UInt64">
  <UnstructuredGrid>
    <FieldData>
      <DataArray type="Float64" Name="TimeValue" NumberOfTuples="1" format="ascii" RangeMin="0.36009999999997666" RangeMax="0.36009999999997666">
        0.36009999999997666
      </DataArray>
    </FieldData>
    <Piece NumberOfPoints="1920" NumberOfCells="960">
      <PointData Scalars="f">
        <DataArray type="Float32" Name="f" format="ascii" RangeMin="-0.9907448291778564" RangeMax="0.9907448887825012">
          0.98336744 0.96488786 0.97888887 0.9744364 0.98193675 0.97759485
          0.97243494 0.9700345 0.97945887 0.9874914 0.9845758 0.9860204
          0.9446829 0.9584861 0.9698467 0.98225665 0.98331404 0.97874546
          0.92709184 0.958969 0.95321506 0.9880015 0.9880751 0.9862695
          0.98309785 0.9860453 0.9819945 0.87812954 0.94375175 0.92870945
          0.96412784 0.9744251 0.95859283 0.98583806 0.9588734 0.97499746
          0.96727693 0.9130315 0.9483531 0.99027705 0.9893023 0.98954916
          0.97727793 0.98745644 0.98774064 0.98571104 0.72225153 0.8252595
          0.892881 0.8734281 0.94222707 0.9272434 0.9893654 0.98619807
          0.98739856 0.984772 0.975259 0.9794218 0.9697419 0.63429374
          0.8526251 0.8046153 0.8594462 0.93308485 0.9050552 0.9898664
          0.9903428 0.9892726 0.9700082 0.9786668 0.9686256 0.98064303
          0.982282 0.98490214 0.8201032 -0.08043955 0.39575624 0.66689277
          0.91886437 0.95083743 0.9061875 0.98977804 0.99025506 0.98899716
          0.99072945 0.9907427 0.99059224 0.9885071 0.98232204 0.93348897
          0.96323967 0.9488352 0.33010885 0.78332233 0.9108761 0.97649616
          0.9555223 0.9854733 0.98671705 0.98345137 -0.13926359 0.37152398
          0.641616 -0.71799815 -0.4596278 -0.0057983077 0.57759273 0.8356455
          0.7848645 0.98823076 0.9905973 0.98932576 0.9903586 0.98984003
          0.9866394 0.9883522 0.9886685 0.98673433 0.9799029 0.9835601
          0.97852635 0.96392083 0.97002757 0.9545196 -0.6355918 -0.40062055
          -0.008708967 -0.10473723 0.61950946 0.31265393 0.6577378 0.8652288
          0.78502333 0.9722498 0.971784 0.97711754 0.9401576 0.9599266
          0.93293494 0.9802348 0.9807209 0.9832157 0.26036763 -0.4821117
          -0.8661482 -0.8085043 -0.66879493 0.7569399 0.8708618 0.6751716
          0.984791 0.98543876 0.9880014 0.9885951 0.9895075 0.9902142
          0.9892625 0.99028313 0.98964053 0.9845704 0.9875322 0.9859851
          0.98606634 0.98816955 0.98566175 0.9839491 0.97405046 0.9200291
          0.9506296 0.92582405 -0.7870299 -0.40364692 0.3275414 0.85164165
          0.9770698 0.9622984 0.8936618 0.98295254 -0.667261 -0.4500887
          -0.09988232 -0.87133914 -0.81323355 -0.6888675 -0.94476956 -0.9240504
          -0.89406425 -0.2989291 0.37669745 0.17160872 0.9871764 0.98957044
          0.9882025 0.9790303 0.98219424 0.98352426 0.9800546 0.9829552
          0.9836953 0.9801094 0.97077996 0.9755655 0.9693695 0.9589487
          0.9609272 0.94871736 -0.92358404 -0.9051975 -0.8496203 -0.8601141
          -0.779146 -0.65983355 -0.7366672 -0.05731051 -0.4706619 0.615602
          0.84698784 0.62284994 0.9723933 0.97271657 0.9765933 0.9513551
          0.94714314 0.96424496 0.84883213 0.91186696 0.80835676 0.9784117
          0.9798151 0.9819461 -0.80027187 -0.50418395 -0.9254622 -0.96556574
          -0.9593156 -0.9420323 0.17168339 0.535456 -0.06560306 0.98082894
          0.98336303 0.98565775 0.9853193 0.98814845 0.987476 0.98448026
          0.9875402 0.98577327 0.97520524 0.97801805 0.98099077 0.97802824
          0.9793337 0.9836795 0.9805099 0.97527075 0.9664092 0.92436457
          0.94922495 0.92066646 -0.95294523 -0.9012423 -0.79928505 -0.1208256
          0.852331 0.96591085 0.976142 0.9248441 0.66186714 0.9798933
          -0.9263297 -0.9086692 -0.85764974 -0.87738293 -0.8066054 -0.727564
          -0.9662839 -0.9602531 -0.94359934 -0.97893745 -0.9747471 -0.96974015
          -0.78925836 -0.47382814 -0.6108039 0.98369926 0.98576355 0.9825818
          0.9676083 0.9745612 0.97167677 0.95857126 0.9702746 0.97353935
          0.9678366 0.97600746 0.9753685 0.94625765 0.9684206 0.97581
          0.96127105 0.97051865 0.9711106 0.9651588 0.96418667 0.9677714
          0.9592384 0.94933563 0.95877343 -0.96854764 -0.9565326 -0.96938556
          -0.9447862 -0.9515105 -0.9043292 -0.9293612 -0.65409493 -0.6736974
          -0.03832154 0.70857596 0.64404666 0.8736236 0.9552431 0.9650784
          0.95341057 0.9709286 0.9727741 0.9748669 0.8894623 0.93128955
          0.86911625 0.4142223 0.28919008 0.71046853 0.9712104 0.976041
          0.9767092 -0.95411855 -0.9081118 -0.84063363 -0.97508717 -0.9827058
          -0.9772472 -0.9817473 -0.7010913 -0.74280286 -0.34995037 0.9743009
          0.9786051 0.98126936 0.9769124 0.9825322 0.98200256 0.9793873
          0.94796735 0.96154094 0.966288 0.9646494 0.95465595 0.9608831
          0.8836815 0.9486141 0.93014336 0.95951915 0.9635131 0.96766615
          0.96402764 0.9631155 0.9568151 0.9443059 -0.97812796 -0.96249634
          -0.92585605 -0.9416544 -0.87080044 -0.8566481 0.04745103 0.91110456
          0.8215205 0.936899 0.96616215 0.9690294 0.9629217 0.9687861
          0.97150904 0.7684847 -0.24503583 0.9729549 -0.9723923 -0.9583828
          -0.970736 -0.9629806 -0.9517293 -0.9408031 -0.94784564 -0.9278278
          -0.91144466 -0.983476 -0.9780277 -0.98205596 -0.9875006 -0.98588425
          -0.9845766 -0.91850513 -0.8760587 -0.8584751 0.97674155 0.9746563
          0.924993 0.93805104 0.9549993 0.87795836 0.9457947 0.9406433
          0.82869726 0.9303148 0.9163333 0.92834765 0.7126964 0.82486635
          0.8933802 0.93658936 0.9229081 0.95877796 0.9492424 0.95026344
          0.9551759 0.9610533 0.9624448 0.9629321 0.9634315 0.9624357
          -0.98189473 -0.97805035 -0.98292214 -0.97390646 -0.9745899 -0.9678482
          -0.96128935 -0.91290516 -0.8441317 -0.91844887 -0.60989904 -0.61562425
          0.078691244 0.5616585 0.9589571 0.9656212 0.9649536 0.9546123
          0.96620774 0.9644765 -0.6460366 -0.12781031 0.95151013 0.9651756
          0.96628374 -0.9795302 -0.968559 -0.95669466 -0.93610996 -0.98607576
          -0.9883224 -0.9883294 -0.9863313 -0.9055743 -0.91127264 -0.84326977
          0.9521582 0.967316 0.9694188 0.9659141 0.83887124 0.89683795
          0.91991967 0.85618734 0.83358955 0.8196649 -0.00041717588 0.691204
          0.42060867 0.7316502 0.8304192 0.882465 0.8979999 0.9141428
          0.945072 0.95854855 0.93412685 0.964092 -0.9860848 -0.9790599
          -0.9645825 -0.97012347 -0.95346904 -0.83479923 -0.9492839 0.95695764
          0.96090716 0.95295995 -0.8235584 0.9529174 -0.98420715 -0.979928
          -0.9842245 -0.9801339 -0.9775616 -0.9744128 -0.9742179 -0.9709311
          -0.96665436 -0.96448755 -0.9595025 -0.9518353 -0.9886838 -0.9884445
          -0.986824 -0.9902834 -0.9896828 -0.98929554 -0.95537937 -0.94334155
          -0.9404704 0.947874 0.74552596 0.87271565 0.7945726 -0.09956847
          0.647933 0.5543846 0.019412948 0.5845168 0.61071175 0.3751213
          0.44101572 -0.7450477 -0.45560473 -0.04965087 0.84258556 0.90950817
          0.79476434 0.8473815 0.9542384 0.93013275 0.9180891 0.94208276
          -0.987006 -0.98787963 -0.98520255 -0.9825303 -0.9827215 -0.9795468
          -0.97556776 -0.9757895 -0.971586 -0.90701514 -0.9541849 -0.9417607
          -0.9587225 0.94950145 0.9441962 0.8690775 0.9312536 0.92712426
          0.844434 0.92433256 0.9235898 -0.9869569 -0.9824588 -0.9774249
          -0.9697215 -0.9599173 -0.9897666 -0.99020994 -0.99043095 -0.989555
          -0.9384174 -0.9533438 0.9251062 0.13296984 0.50398344 0.64170843
          -0.039422795 0.075800836 -0.48937386 -0.7184565 -0.43032798 0.015609321
          -0.8845303 -0.6903718 -0.833791 0.034258008 0.44736102 0.6221886
          -0.94565004 -0.88228804 -0.8306857 -0.89689875 -0.92812335 0.3312153
          0.5760096 0.77852803 0.73634493 0.84339243 0.8799898 -0.9890336
          -0.9850591 -0.979327 -0.9665667 -0.9661977 -0.9709484 -0.96166205
          0.90822375 0.853761 0.84499973 -0.9864577 -0.9879296 -0.9856451
          -0.9839222 -0.9823779 -0.981697 -0.97903556 -0.9720167 -0.9734168
          -0.9693234 -0.9655546 -0.96552616 -0.96215004 -0.98975766 -0.9903178
          -0.98943865 -0.9907373 -0.99067295 -0.9907448 -0.96226573 -0.95973575
          -0.9594112 -0.55812734 -0.2356909 0.20865656 -0.831834 -0.61863154
          -0.58529586 -0.8075064 -0.54747325 -0.5159672 -0.6968862 -0.4121404
          -0.82756877 -0.9296821 0.09148418 0.6268502 0.05962908 -0.9658808
          -0.9437799 -0.9592527 0.5618701 -0.14694662 0.8148996 -0.9886553
          -0.9896445 -0.9880917 -0.98537034 -0.98648494 -0.984358 -0.9801091
          -0.9817438 -0.9782529 -0.9712025 -0.9695458 -0.9738417 -0.963265
          0.14544734 0.6814924 0.64273316 0.63288265 -0.9884652 -0.984678
          -0.9788338 -0.98090047 -0.9778063 -0.97575563 -0.96852493 -0.96328527
          -0.9905666 -0.9897401 -0.9904485 -0.990228 -0.7056157 -0.81946075
          -0.8604836 -0.75964993 -0.48251775 -0.73187494 -0.9177212 -0.8575475
          -0.9111851 -0.96805114 -0.94891655 -0.9610367 -0.45765123 -0.9790319
          -0.9698725 -0.97444266 -0.9560623 -0.937495 -0.9621362 -0.5384966
          -0.12880515 0.21354681 -0.8260499 -0.7227538 -0.4843741 0.49502844
          -0.9893954 -0.9872428 -0.9829997 -0.9758152 -0.96375066 -0.9659705
          -0.96693695 -0.96356577 0.1113899 -0.98665214 -0.98858863 -0.98678267
          -0.9848298 -0.9832801 -0.9833573 -0.9812969 -0.9711372 -0.9757236
          -0.9729623 -0.9666493 -0.96997714 -0.9669067 -0.9622911 -0.96444744
          -0.96329886 -0.9892102 -0.9903268 -0.9897591 -0.9892851 -0.98972046
          -0.99029285 -0.9024348 -0.86798084 -0.8091314 -0.9435742 -0.9136124
          -0.90920424 -0.9269014 -0.86887956 -0.95473075 -0.9757246 -0.73725367
          -0.43059814 -0.7426647 -0.9806118 -0.98063815 -0.975724 -0.9732527
          -0.7125728 -0.21755752 -0.8715377 -0.9868524 -0.9886066 -0.9880331
          -0.98644435 -0.98228914 -0.98156416 -0.98427653 -0.9738881 -0.9726988
          -0.9775925 -0.9617523 -0.9630367 -0.9676436 -0.962284 -0.40947846
          -0.9882771 -0.9852591 -0.97643006 -0.9805375 -0.9783794 -0.96874094
          -0.9738718 -0.9638306 -0.9895695 -0.98709804 -0.98849 -0.988769
          -0.92805505 -0.951107 -0.9211074 -0.87197244 -0.9215866 -0.9728535
          -0.97272974 -0.9583729 -0.984371 -0.97937375 -0.9825186 -0.86437154
          -0.98669213 -0.98399717 -0.984374 -0.97617304 -0.97875226 -0.9700693
          -0.9149893 -0.8835548 -0.828681 -0.85123 -0.74624354 -0.59228057
          -0.949149 -0.93433756 -0.9197127 -0.987217 -0.98491436 -0.9785258
          -0.9680496 -0.953153 -0.9600538 -0.9569043 -0.9586863 -0.8015259
          -0.98452556 -0.9860678 -0.9874357 -0.98405325 -0.97703916 -0.97688425
          -0.98114216 -0.95446247 -0.9643842 -0.962836 -0.95941365 -0.96981525
          -0.966837 -0.9527452 -0.96121645 -0.9590449 -0.9858662 -0.9881148
          -0.9880501 -0.9844587 -0.986221 -0.98755026 -0.9636884 -0.9570022
          -0.94649476 -0.9664277 -0.95858896 -0.98111224 -0.9861043 -0.93875486
          -0.88953465 -0.93116546 -0.98586214 -0.986621 -0.984005 -0.98235977
          -0.8903988 -0.93579656 -0.9571862 -0.9817173 -0.9850244 -0.9849247
          -0.98243284 -0.9734835 -0.97399193 -0.97880137 -0.9589646 -0.96032596
          -0.96824014 -0.9391331 -0.94688565 -0.95331824 -0.9521772 -0.91208565
          -0.9855997 -0.981539 -0.96324813 -0.97153634 -0.9715069 -0.9565807
          -0.9528764 -0.9614749 -0.9854521 -0.9782058 -0.98218983 -0.9840327
          -0.9707672 -0.97351784 -0.95927125 -0.9741018 -0.98644775 -0.9823801
          -0.98611236 -0.98927736 -0.9875314 -0.9884045 -0.9623758 -0.98959315
          -0.98857754 -0.9881619 -0.9792453 -0.98308766 -0.9784043 -0.95393014
          -0.9406834 -0.92993474 -0.95832187 -0.9462616 -0.9545707 -0.9699119
          -0.96836454 -0.96394074 -0.98063636 -0.9784534 -0.9669749 -0.94953334
          -0.9168746 -0.9407121 -0.92861927 -0.9403554 -0.9480095 -0.97632116
          -0.9816084 -0.98237807 -0.9768986 -0.9616962 -0.9629277 -0.9712992
          -0.91184986 -0.94308716 -0.9402905 -0.9067296 -0.9381287 -0.9381021
          -0.9173829 -0.94785345 -0.9452969 -0.97445506 -0.9809335 -0.98191565
          -0.9684102 -0.9751009 -0.9794517 -0.9735665 -0.98237354 -0.9884253
          -0.989765 -0.9738907 -0.96421695 -0.9741686 -0.9879331 -0.98717546
          -0.9889751 -0.9841606 -0.9820897 -0.98533314 -0.9862921 -0.9552977
          -0.96372795 -0.9747358 -0.9647484 -0.97320837 -0.9762565 -0.9675166
          -0.9713468 -0.9767075 -0.94638807 -0.9535406 -0.963782 -0.93006605
          -0.9480369 -0.93429464 -0.88274336 -0.91879725 -0.9022651 -0.91101205
          -0.9658821 -0.97578263 -0.970565 -0.9247761 -0.9486115 -0.95048946
          -0.90795684 -0.9146077 -0.9220818 -0.9725418 -0.9447619 -0.96076065
          -0.9690153 -0.9849636 -0.9812103 -0.98619354 -0.9894208 -0.98977023
          -0.9884447 -0.9907385 -0.9902893 -0.9904299 -0.98065656 -0.99026775
          -0.99011123 -0.98940784 -0.97551787 -0.9779503 -0.9803686 -0.98478824
          -0.9847393 -0.986759 -0.9643955 -0.96203786 -0.9624967 -0.9634445
          -0.96712554 -0.9634832 -0.9731445 -0.95882213 -0.96692973 -0.95935947
          -0.93850064 -0.91011065 -0.7581435 -0.87077403 -0.83694696 -0.7575213
          -0.858059 -0.869336 -0.97133297 -0.96597004 -0.97296023 -0.9565906
          -0.96768296 -0.9692249 -0.96002764 -0.9114187 -0.9454535 -0.9204942
          -0.743289 -0.8589712 -0.85415035 -0.74169075 -0.8639812 -0.85932875
          -0.7668926 -0.8779411 -0.8705669 -0.94418395 -0.9608306 -0.9652583
          -0.88302225 -0.9267176 -0.94918203 -0.98773146 -0.9904002 -0.9906793
          -0.9820199 -0.9790777 -0.9837967 -0.9882509 -0.9882793 -0.9894949
          -0.9790803 -0.97744757 -0.98225236 -0.98225105 -0.986767 -0.96733105
          -0.9630137 -0.9678069 -0.9707988 -0.9651709 -0.97238135 -0.88665146
          -0.9264607 -0.943806 -0.9099622 -0.9511958 -0.9482212 -0.9219197
          -0.9368905 -0.95367277 -0.88962895 -0.9259502 -0.91396135 -0.8448551
          -0.90091276 -0.8645329 -0.75347835 -0.615591 -0.69030863 -0.79980487
          -0.74328226 -0.97709244 -0.95321274 -0.940943 -0.7721487 -0.865694
          -0.8801393 -0.73765695 -0.752035 -0.7689616 -0.9265968 -0.6912483
          -0.8244688 -0.89121634 -0.9862705 -0.9882318 -0.98583585 -0.98980993
          -0.99057084 -0.9897523 -0.9902829 -0.9907448 -0.99046826 -0.98436135
          -0.9887157 -0.9897933 -0.98867613 -0.96983224 -0.97525275 -0.9738471
          -0.9786505 -0.98241705 -0.9791094 -0.98472893 -0.98687303 -0.9849805
          -0.96311384 -0.96504384 -0.96929127 -0.95017326 -0.95852035 -0.9615003
          -0.9424684 -0.95892584 -0.95787174 -0.96889466 -0.817524 -0.9005705
          -0.9179065 -0.9091864 -0.86943257 -0.7616958 0.0011043773 -0.48965394
          -0.4911087 0.0037953588 -0.49021214 -0.35678965 0.000927064 -0.47437632
          -0.4869214 -0.97573394 -0.9742275 -0.97952944 -0.8858199 -0.92659044
          -0.93445456 -0.9017186 -0.68240833 -0.7320316 -0.84574336 0.00024557635
          -0.47136143 -0.471835 -0.00044762847 -0.4992666 -0.4708872 -0.0008819116
          -0.50502527 -0.5009345 -0.6912263 -0.824465 -0.8911959 0.000055198656
          -0.41784382 -0.68771935 -0.98845387 -0.9903568 -0.9897411 -0.98185164
          -0.9822034 -0.98449445 -0.9871804 -0.97463804 -0.982161 -0.95671904
          -0.9698769 -0.945512 -0.94645613 -0.96171 -0.9437465 -0.96139073
          -0.68212926 -0.81738 -0.68343717 -0.8431818 -0.7645155 -0.87541187
          -0.8617856 -0.75879824 -0.8430671 -0.8733749 -0.6131554 -0.76083696
          -0.80568546 -0.6071849 0.0006154724 0.0009778247 0.005530707 0.0031041575
          -0.35393378 0.00020207524 -0.97903925 -0.8173407 -0.8171094 -0.00028024375
          -0.4108418 -0.5084785 0.00006355423 -0.00038978993 -0.000407342 -0.41783822
          -0.0000059947743 -0.41599667 0.000016562715 -0.9861084 -0.9884067 -0.98635095
          -0.9880916 -0.98959583 -0.9892838 -0.9875011 -0.9892994 -0.98836625
          -0.9842069 -0.9842403 -0.98702526 -0.9847976 -0.9644711 -0.9679539
          -0.9733694 -0.97576624 -0.9814256 -0.977702 -0.9202285 -0.93898463
          -0.950771 -0.95668393 -0.9607595 -0.96954584 -0.86959946 -0.9193713
          -0.9278953 -0.8442432 -0.9167234 -0.91523504 -0.95728624 -0.4124929
          -0.72711396 -0.7613374 -0.69226265 -0.3535264 0.7831994 0.5212764
          0.5200262 0.78254664 0.51516384 0.5190968 0.8218259 0.57348096
          0.57755905 0.75365174 0.48575515 0.4831717 -0.9744894 -0.97561765
          -0.9791838 -0.6834059 -0.000027804808 -0.41253567 -0.000032148408 0.75127256
          0.4821883 0.48192134 0.7364913 0.4644419 0.46646872 0.7415673
          0.4700618 0.47281525 0.000012969441 -0.4159888 0.69602126 0.42195076
          0.4206136 -0.9874247 -0.9881722 -0.9863707 -0.9817803 -0.9821261
          -0.9844372 -0.9811497 -0.97142184 -0.94271886 -0.89980054 -0.9674235
          -0.8533792 -0.84831065 -0.8455592 -0.9220743 -0.8865273 -0.94375163
          -0.92730594 -0.000049996088 -0.41063452 0.000008724943 -0.49902442 0.00008429139
          -0.49190447 -0.4959396 0.0027442772 -0.3538633 -0.4908083 0.0027104798
          0.76410913 0.77852243 0.7986197 0.81959033 0.5712209 0.81872743
          0.7479409 -0.97868496 0.6874896 0.41576922 0.41757575 0.7408644
          0.7377308 0.7158687 0.69598997 0.42059886 0.42194077 0.883064
          0.825751 0.6874388 0.6879259 0.41767088 0.68891346 -0.98571897
          -0.9831401 -0.98625255 -0.9860406 -0.9789302 -0.9845702 -0.9825887
          -0.96786106 -0.97916955 -0.9734878 -0.9354163 -0.9641725 -0.9558995
          -0.85829973 -0.8970024 -0.9314005 -0.6870432 -0.8579024 -0.8025497
          -0.9411955 -0.95070714 -0.9643377 -0.2427883 -0.6668815 -0.704933
          -0.87017524 -0.24114321 -0.6702479 -0.6787514 -0.91763693 0.41586152
          0.000019123048 0.00033941856 0.5718653 0.91660756 0.8673756 0.8742843
          0.92624646 0.8845266 0.8860598 0.9287625 0.8871529 0.8961606
          0.94231415 0.9101369 0.909947 0.91592264 0.8659892 0.8660517
          -0.9701401 -0.97303843 -0.9775234 0.68884593 0.9126373 0.86125046
          0.8586046 0.91250956 0.8570203 0.8595905 0.9042397 0.8510874
          0.83887535 0.8257498 0.94480824 0.9269193 0.892512 0.8889174
          0.8211663 0.8215574 -0.9829209 -0.9820116 -0.9755119 -0.95811206
          -0.91444916 -0.79079545 -0.49443656 -0.960074 -0.23165251 -0.48437324
          -0.77377975 -0.7324427 -0.26305184 -0.24545626 -0.6919979 -0.64503336
          -0.8673601 -0.8079948 0.76462144 0.499056 0.7296626 0.49596274
          0.7611126 0.49259076 0.49012172 0.7913446 0.91562945 0.9212683
          0.92654496 0.93549675 0.932701 0.93857116 0.89822924 0.9144018
          -0.9786508 0.88803124 0.8214712 0.82093066 0.9132214 0.9100212
          0.8983884 0.9444975 0.9268436 0.89251477 0.9276997 0.9686785
          0.9609349 0.9492073 0.9108733 0.84577286 0.9023935 -0.9643844
          -0.9744313 -0.97728556 -0.94482076 -0.969787 -0.9610253 -0.8807309
          -0.9478563 -0.9202151 -0.78085643 -0.8226812 -0.89877385 -0.13426441
          -0.6650866 -0.4508498 0.5046951 -0.17075047 0.1570444 -0.92332786
          -0.93497735 -0.9563652 0.7890192 0.4370457 0.43974862 -0.37214816
          -0.5629979 0.7893515 0.42890927 0.43841425 -0.80935043 0.8629567
          0.761477 0.88608205 0.95766854 0.9434106 0.9441207 0.9564784
          0.945667 0.9438953 0.95724076 0.9480033 0.9471949 0.96127844
          0.9548256 0.9504387 0.96696943 0.95580524 0.9576315 0.9582236
          0.9429493 0.9428854 -0.9687236 0.92796487 0.9596818 0.9433616
          0.9437207 0.95598257 0.9379754 0.94076353 0.9338896 0.9609537
          0.96116096 0.95613813 0.9400064 0.976265 0.9736469 0.9670713
          0.94488585 -0.9587128 -0.9292137 -0.88017875 -0.55037796 0.20390561
          0.80180585 0.46895945 0.6841404 -0.95173204 0.78530747 0.78243095
          0.71524495 0.21315336 0.3232249 0.6099785 -0.042129267 0.09113873
          0.748525 0.06504438 -0.67381877 -0.34624183 0.9223136 0.87549067
          0.9184977 0.87256336 0.9288268 0.957752 0.95667136 0.95573574
          0.95852333 0.97173893 0.9628385 0.96666455 0.9699329 0.96545815
          0.9538443 0.96649975 0.9590707 0.95914763 0.9527848 0.96481216
          0.9705536 0.984467 0.9814881 0.97942525 0.9647168 0.9482273
          0.9637615 -0.88021934 -0.9292455 -0.94344217 -0.7214908 -0.8926511
          -0.82710254 -0.6479976 -0.71806824 -0.85269964 0.30550748 -0.409631
          0.08759888 0.8156748 0.5334863 0.6970454 0.8983503 0.86028624
          0.797686 -0.9121877 0.9303244 0.8926071 0.890596 0.9393867
          0.9004381 0.89758545 0.6607972 0.37396714 0.9298854 0.87297547
          0.8865373 -0.40222648 0.95062476 0.95153505 0.9723527 0.9660983
          0.96713597 0.96924955 0.96398056 0.96549475 0.96317863 0.96084213
          0.9611249 0.96544886 0.9649176 0.9629111 0.9720649 0.9686195
          0.9727038 0.9802679 0.9755461 0.9765184 0.978825 0.9739177
          0.97390807 0.9753833 0.96853936 0.96941435 0.9763018 0.96893716
          0.9701442 0.97455305 0.9793866 0.9783007 0.973122 0.9818431
          0.98646575 0.98577017 0.9829293 0.97390467 -0.82698613 -0.2295312
          -0.8087416 0.64563996 0.86711854 0.9400049 0.90253735 0.924987
          0.9334854 0.9337106 0.93541133 0.91747856 0.83927804 0.8575569
          0.86227965 0.6581364 0.7742432 0.9258716 0.71839076 0.0037080778
          0.45473012 0.96547544 0.9739414 0.9708462 0.9653087 0.9632956
          0.96840984 0.9797669 0.97687614 0.9760669 0.9798212 0.98031944
          0.9796418 0.9742138 0.97936875 0.9764763 0.9837955 0.98608184
          0.9860753 0.98267144 0.9892781 0.9882403 0.9875383 0.97425145
          0.97970957 0.066864304 -0.402217 -0.67378205 0.6395819 0.4863934
          0.004098621 -0.34779063 0.8832892 0.85536516 0.7399507 0.944036
          0.9272905 0.9108337 0.9572983 0.9492266 0.9398431 0.9609648
          0.95369846 0.95032585 0.9587055 0.94989264 0.9520184 0.9701068
          0.95802623 0.9593089 0.89957124 0.8049448 0.969244 0.954493
          0.9566813 0.45545855 0.9838251 0.98064494 0.97914153 0.98008823
          0.97726154 0.97503555 0.9647381 0.9645864 0.96821773 0.9630953
          0.9627805 0.9650323 0.9687699 0.971805 0.9728577 0.9770153
          0.98501873 0.98246473 0.98292893 0.9850724 0.98301893 0.9827179
          0.9829863 0.9821993 0.98584676 0.98338914 0.98637336 0.98834264
          0.98943496 0.98832893 0.98952967 0.98331743 0.80732536 0.39864498
          0.9256604 0.9522586 0.9572863 0.9623271 0.95874274 0.9666096
          0.96221685 0.9609996 0.9713172 0.9702272 0.96488905 0.94063526
          0.9512517 0.9445776 0.89432544 0.92331964 0.9686292 0.8702705
          0.6742785 0.8129964 0.982218 0.98534155 0.97297335 0.97199523
          0.97701365 0.96865875 0.9822242 0.97780836 0.98135555 0.9852227
          0.9842316 0.98555666 0.98803884 0.98945946 0.98971164 0.9882168
          0.9907379 0.9903599 0.9902918 0.925699 0.9101422 0.8517454
          0.79239583 0.95958483 0.9529812 0.9380119 0.971751 0.9652383
          0.96287143 0.9675825 0.97803366 0.9825981 0.9779639 0.97781605
          0.95911145 0.92547846 0.9827412 0.97711396 0.9781073 0.9870419
          0.9858267 0.9841291 0.987407 0.98222095 0.98149633 0.9779571
          0.98828715 0.9869161 0.9869263 0.98729336 0.98517305 0.98647463
          0.98738503 0.9890291 0.9903969 0.99025375 0.99066275 0.99010915
          0.9484768 0.9084691 0.96750754 0.9728734 0.98267174 0.9830979
          0.9788689 0.96973085 0.97466755 0.9660893 0.9601746 0.9435691
          0.98170173 0.988627 0.9850728 0.9781518 0.98812383 0.98562574
          0.9895594 0.9897559 0.9905808 0.9898768 0.99028414 0.9905035
          0.9907449 0.9711391 0.9570292 0.9664022 0.9540965 0.97887933
          0.9721979 0.97564656 0.98837656 0.9863727 0.98620313 0.9751006
          0.9874975 0.98458415 0.985872 0.9887159 0.9864045 0.9845955
          0.98696333 0.9810558 0.9891682 0.9881079 0.9902746 0.9896839
          0.989684 0.9760872 0.96984446 0.98832315 0.98276746 0.98149985
          0.9773351 0.9857844 0.988459 0.9834872 0.9884829 0.9893511
          0.98967695 0.98929775 0.98352647 0.9789434 0.9815613 0.97861445
          0.98826355 0.9864264 0.9877659 0.9853282 0.98345315 0.98658955
        </DataArray>
      </PointData>
      <CellData>
      </CellData>
      <Points>
        <DataArray type="Float32" Name="" NumberOfComponents="3" format="ascii" RangeMin="2" RangeMax="4.000000117726188">
          -1.6878781 -3.517058 -0.43359867 -1.1181146 -3.738087 -0.43230563
          -1.4613642 -3.723495 -2.4492937e-16 -1.2987294 -3.7567964 -0.22243033
          -1.5853653 -3.6449788 -0.22296049 -1.4064959 -3.6366208 -0.4376746
          -1.2920372 -3.3955672 -0.7740901 -1.2115793 -3.5860763 -0.6192207
          -1.4981405 -3.4752944 -0.6201864 -2 -3.4641016 -2.4492937e-16
          -1.7355349 -3.6038754 -2.4492937e-16 -1.85661 -3.5145657 -0.22300509
          -0.89008373 -3.8997116 -2.4492937e-16 -1.010791 -3.84435 -0.22214867
          -1.1790206 -3.8222911 -2.4492937e-16 -1.7117547 -3.1061885 -0.837381
          -1.7127992 -3.3369167 -0.66050035 -1.5035173 -3.2543871 -0.81109613
          -0.7732135 -3.4492066 -0.844972 -1.0338244 -3.4263608 -0.8153771
          -0.95336944 -3.6229281 -0.66564596 -2.1254263 -3.22934 -0.5000175
          -2.0808043 -3.3760736 -0.2592647 -1.9103315 -3.3797083 -0.4707982
          -1.6881068 -3.4556785 0.53324425 -1.8628182 -3.4950974 0.27817628
          -1.5910667 -3.626814 0.2784057 -0.5886533 -3.813472 -0.51258355
          -0.85514814 -3.783585 -0.47678518 -0.74633545 -3.892932 -0.26652375
          -1.1129885 -3.6813958 0.53324425 -1.3005254 -3.7408428 0.2784057
          -1.0117276 -3.829126 0.27817628 -1.9296354 -3.1860006 -0.68896544
          -1.0762538 -2.983214 -0.9851985 -1.3976177 -3.0525937 -0.93397826
          -1.1888921 -3.2021751 -0.9094761 -0.6847283 -3.651577 -0.69889826
          -0.92683804 -3.2235296 -0.9351972 -2.4939592 -3.127326 -2.4492937e-16
          -2.2532802 -3.304955 -2.4492937e-16 -2.3312733 -3.2080297 -0.2598887
          -1.4037759 -3.5767627 0.5388973 -2.0414612 -3.3014367 0.47194216
          -2.0358915 -3.408149 0.24338955 -1.866765 -3.3821468 0.50499177
          -0.29892036 -3.9888153 -2.4492937e-16 -0.44802377 -3.9383886 -0.26666322
          -0.59616905 -3.9553232 -2.4492937e-16 -0.57100976 -3.8155854 0.51352406
          -0.8436147 -3.755683 0.5279669 -0.7375139 -3.8944385 0.2671421
          -2.2883055 -3.2435741 0.2449992 -2.1192245 -2.794585 -0.86179763
          -2.1363926 -3.0319266 -0.7051987 -1.916943 -2.9526255 -0.85397005
          -1.4848013 -2.6663594 -0.99865216 -1.6034487 -2.8956115 -0.9507605
          -1.2806493 -2.8250551 -0.9948076 -0.24859825 -3.4770105 -0.87402207
          -0.5112989 -3.4657726 -0.8641205 -0.42151105 -3.6703653 -0.7195028
          -0.547986 -3.0083199 -0.9983269 -0.81219643 -2.9960496 -0.99455774
          -0.66256464 -3.2383668 -0.95220757 -2.6098228 -2.8494678 -0.5034594
          -2.5749629 -3.0154152 -0.26134947 -2.3732393 -3.0466118 -0.5071143
          -1.2578641 -3.2049854 0.8965285 -1.4836465 -3.354436 0.74425626
          -1.1940061 -3.4681115 0.74425626 -1.6176435 -3.0873592 0.87424886
          -1.6626395 -3.2908454 0.72664917 -1.844518 -3.2205276 0.7028481
          -0.4390973 -3.9392717 0.2671008 0.026009876 -3.858843 -0.51209193
          -0.13776366 -3.9614532 -0.26645333 -0.28198272 -3.8451712 -0.5178081
          -0.7377783 -3.3500123 0.90269 -0.93233585 -3.5421178 0.7488273
          -0.65972126 -3.6119654 0.7408054 -2.5325983 -2.9332738 0.48353392
          -2.533304 -3.0544443 0.2498614 -2.2925658 -3.124901 0.48289907
          -2.9322076 -2.720691 -2.4492937e-16 -2.720691 -2.9322076 -2.4492937e-16
          -2.7966971 -2.8108916 -0.2615987 -2.3805363 -2.8411374 -0.7075956
          -1.8067914 -2.7377129 -0.9599481 -0.84550834 -2.5293887 -0.9429137
          -1.1640562 -2.5954247 -0.987838 -0.9599839 -2.753728 -0.99648786
          -0.11205921 -3.6931398 -0.7191648 -0.39917782 -3.249876 -0.96164435
          -0.6960761 -2.7661874 -0.9890505 -1.4382608 -3.1472816 0.88774097
          -0.9983963 -3.279388 0.903779 -1.9720197 -2.9594204 0.831004
          -2.0188093 -3.1492555 0.67175263 -1.7957271 -3.0248983 0.8555251
          0.043808755 -3.858969 0.5116101 -0.12878816 -3.961802 0.26628345
          -0.26421976 -3.846292 0.51803964 0.29892036 -3.9888153 -2.4492937e-16
          0.16398461 -3.9605274 -0.26618898 -1.4945642e-14 -4 -2.4492937e-16
          -0.21414325 -3.4789233 0.87423235 -0.47628444 -3.4167898 0.8931162
          -0.39529443 -3.6725056 0.72024643 -2.2672205 -2.9658535 0.68004286
          -2.7576246 -2.853077 0.25118473 -2.9933984 -2.4147432 -0.53324425
          -2.992952 -2.5938458 -0.27817628 -2.8074853 -2.637625 -0.52330196
          -2.4887862 -2.3735385 -0.8984145 -2.7612433 -2.4117413 -0.74578077
          -2.5703847 -2.6330976 -0.7335042 -2.3058546 -2.5861359 -0.8853987
          -1.8603916 -2.2313766 -0.9954949 -1.9963651 -2.521262 -0.9764079
          -1.672551 -2.4488015 -0.9994039 -1.2388577 -2.119206 -0.8382741
          -1.3555456 -2.3817418 -0.96573615 -1.0420102 -2.323912 -0.89142495
          0.25180134 -3.5070472 -0.8565434 0.13974178 -3.7051153 -0.7064634
          0.0016025947 -3.494306 -0.86928767 0.03373639 -2.9842749 -0.99987936
          -0.25712535 -2.9963038 -0.99997324 -0.10770821 -3.238981 -0.9705819
          -0.26590022 -2.523838 -0.8867791 -0.5560356 -2.5281196 -0.91143